+ 0 /NodeList/2/DeviceList/1/$ns3::CsmaNetDevice/TxQueue/Enqueue ns3::EthernetHeader ( length/type=0x86dd, source=00:00:00:00:00:02, destination=33:33:ff:00:00:02) ns3::Ipv6Header ((Version 6 Traffic class 0x0 DSCP Default Flow Label 0x1 Payload Length 32 Next Header 58 Hop Limit 255 ):: > ff02::1:ff00:2) ns3::Icmpv6NS (( type = 135 (NS) code = 0 target = fe80::200:ff:fe00:2 checksum = 6266)) ns3::Icmpv6OptionLinkLayerAddress (( type = 1 length = 1 L2 Address = 00-06-00:00:00:00:00:02)) ns3::EthernetTrailer (fcs=0)
- 0 /NodeList/2/DeviceList/1/$ns3::CsmaNetDevice/TxQueue/Dequeue ns3::EthernetHeader ( length/type=0x86dd, source=00:00:00:00:00:02, destination=33:33:ff:00:00:02) ns3::Ipv6Header ((Version 6 Traffic class 0x0 DSCP Default Flow Label 0x1 Payload Length 32 Next Header 58 Hop Limit 255 ):: > ff02::1:ff00:2) ns3::Icmpv6NS (( type = 135 (NS) code = 0 target = fe80::200:ff:fe00:2 checksum = 6266)) ns3::Icmpv6OptionLinkLayerAddress (( type = 1 length = 1 L2 Address = 00-06-00:00:00:00:00:02)) ns3::EthernetTrailer (fcs=0)
+ 0 /NodeList/2/DeviceList/1/$ns3::CsmaNetDevice/TxQueue/Enqueue ns3::EthernetHeader ( length/type=0x86dd, source=00:00:00:00:00:02, destination=33:33:ff:00:00:02) ns3::Ipv6Header ((Version 6 Traffic class 0x0 DSCP Default Flow Label 0x1 Payload Length 32 Next Header 58 Hop Limit 255 ):: > ff02::1:ff00:2) ns3::Icmpv6NS (( type = 135 (NS) code = 0 target = 2001:2::200:ff:fe00:2 checksum = 38488)) ns3::Icmpv6OptionLinkLayerAddress (( type = 1 length = 1 L2 Address = 00-06-00:00:00:00:00:02)) ns3::EthernetTrailer (fcs=0)
- 0.0001632 /NodeList/2/DeviceList/1/$ns3::CsmaNetDevice/TxQueue/Dequeue ns3::EthernetHeader ( length/type=0x86dd, source=00:00:00:00:00:02, destination=33:33:ff:00:00:02) ns3::Ipv6Header ((Version 6 Traffic class 0x0 DSCP Default Flow Label 0x1 Payload Length 32 Next Header 58 Hop Limit 255 ):: > ff02::1:ff00:2) ns3::Icmpv6NS (( type = 135 (NS) code = 0 target = 2001:2::200:ff:fe00:2 checksum = 38488)) ns3::Icmpv6OptionLinkLayerAddress (( type = 1 length = 1 L2 Address = 00-06-00:00:00:00:00:02)) ns3::EthernetTrailer (fcs=0)
+ 0.001 /NodeList/1/DeviceList/2/$ns3::CsmaNetDevice/TxQueue/Enqueue ns3::EthernetHeader ( length/type=0xa0ed, source=00:00:00:00:00:04, destination=33:33:ff:00:00:04) ns3::SixLowPanIphc (TF_DSCP_ELIDED(0, 1) NH(0) HLIM_COMPR_255(255) CID(0) SAC(1) SAM (0) M(1) DAC(0) DAM (1)) ns3::Icmpv6NS (( type = 135 (NS) code = 0 target = 2001:1::200:ff:fe00:4 checksum = 37208)) ns3::Icmpv6OptionLinkLayerAddress (( type = 1 length = 1 L2 Address = 00-06-00:00:00:00:00:04)) Payload (size=2) ns3::EthernetTrailer (fcs=0)
- 0.001 /NodeList/1/DeviceList/2/$ns3::CsmaNetDevice/TxQueue/Dequeue ns3::EthernetHeader ( length/type=0xa0ed, source=00:00:00:00:00:04, destination=33:33:ff:00:00:04) ns3::SixLowPanIphc (TF_DSCP_ELIDED(0, 1) NH(0) HLIM_COMPR_255(255) CID(0) SAC(1) SAM (0) M(1) DAC(0) DAM (1)) ns3::Icmpv6NS (( type = 135 (NS) code = 0 target = 2001:1::200:ff:fe00:4 checksum = 37208)) ns3::Icmpv6OptionLinkLayerAddress (( type = 1 length = 1 L2 Address = 00-06-00:00:00:00:00:04)) Payload (size=2) ns3::EthernetTrailer (fcs=0)
+ 0.001 /NodeList/1/DeviceList/1/$ns3::CsmaNetDevice/TxQueue/Enqueue ns3::EthernetHeader ( length/type=0x86dd, source=00:00:00:00:00:01, destination=33:33:ff:00:00:01) ns3::Ipv6Header ((Version 6 Traffic class 0x0 DSCP Default Flow Label 0x1 Payload Length 32 Next Header 58 Hop Limit 255 ):: > ff02::1:ff00:1) ns3::Icmpv6NS (( type = 135 (NS) code = 0 target = fe80::200:ff:fe00:1 checksum = 7034)) ns3::Icmpv6OptionLinkLayerAddress (( type = 1 length = 1 L2 Address = 00-06-00:00:00:00:00:01)) ns3::EthernetTrailer (fcs=0)
- 0.001 /NodeList/1/DeviceList/1/$ns3::CsmaNetDevice/TxQueue/Dequeue ns3::EthernetHeader ( length/type=0x86dd, source=00:00:00:00:00:01, destination=33:33:ff:00:00:01) ns3::Ipv6Header ((Version 6 Traffic class 0x0 DSCP Default Flow Label 0x1 Payload Length 32 Next Header 58 Hop Limit 255 ):: > ff02::1:ff00:1) ns3::Icmpv6NS (( type = 135 (NS) code = 0 target = fe80::200:ff:fe00:1 checksum = 7034)) ns3::Icmpv6OptionLinkLayerAddress (( type = 1 length = 1 L2 Address = 00-06-00:00:00:00:00:01)) ns3::EthernetTrailer (fcs=0)
r 0.002144 /NodeList/1/DeviceList/1/$ns3::CsmaNetDevice/MacRx ns3::EthernetHeader ( length/type=0x86dd, source=00:00:00:00:00:02, destination=33:33:ff:00:00:02) ns3::Ipv6Header ((Version 6 Traffic class 0x0 DSCP Default Flow Label 0x1 Payload Length 32 Next Header 58 Hop Limit 255 ):: > ff02::1:ff00:2) ns3::Icmpv6NS (( type = 135 (NS) code = 0 target = fe80::200:ff:fe00:2 checksum = 6266)) ns3::Icmpv6OptionLinkLayerAddress (( type = 1 length = 1 L2 Address = 00-06-00:00:00:00:00:02)) ns3::EthernetTrailer (fcs=0)
r 0.0031024 /NodeList/0/DeviceList/1/$ns3::CsmaNetDevice/MacRx ns3::EthernetHeader ( length/type=0xa0ed, source=00:00:00:00:00:04, destination=33:33:ff:00:00:04) ns3::SixLowPanIphc (TF_DSCP_ELIDED(0, 1) NH(0) HLIM_COMPR_255(255) CID(0) SAC(1) SAM (0) M(1) DAC(0) DAM (1)) ns3::Icmpv6NS (( type = 135 (NS) code = 0 target = 2001:1::200:ff:fe00:4 checksum = 37208)) ns3::Icmpv6OptionLinkLayerAddress (( type = 1 length = 1 L2 Address = 00-06-00:00:00:00:00:04)) Payload (size=2) ns3::EthernetTrailer (fcs=0)
r 0.004661 /NodeList/2/DeviceList/1/$ns3::CsmaNetDevice/MacRx ns3::EthernetHeader ( length/type=0x86dd, source=00:00:00:00:00:01, destination=33:33:ff:00:00:01) ns3::Ipv6Header ((Version 6 Traffic class 0x0 DSCP Default Flow Label 0x1 Payload Length 32 Next Header 58 Hop Limit 255 ):: > ff02::1:ff00:1) ns3::Icmpv6NS (( type = 135 (NS) code = 0 target = fe80::200:ff:fe00:1 checksum = 7034)) ns3::Icmpv6OptionLinkLayerAddress (( type = 1 length = 1 L2 Address = 00-06-00:00:00:00:00:01)) ns3::EthernetTrailer (fcs=0)
r 0.0068232 /NodeList/1/DeviceList/1/$ns3::CsmaNetDevice/MacRx ns3::EthernetHeader ( length/type=0x86dd, source=00:00:00:00:00:02, destination=33:33:ff:00:00:02) ns3::Ipv6Header ((Version 6 Traffic class 0x0 DSCP Default Flow Label 0x1 Payload Length 32 Next Header 58 Hop Limit 255 ):: > ff02::1:ff00:2) ns3::Icmpv6NS (( type = 135 (NS) code = 0 target = 2001:2::200:ff:fe00:2 checksum = 38488)) ns3::Icmpv6OptionLinkLayerAddress (( type = 1 length = 1 L2 Address = 00-06-00:00:00:00:00:02)) ns3::EthernetTrailer (fcs=0)
+ 0.007 /NodeList/0/DeviceList/1/$ns3::CsmaNetDevice/TxQueue/Enqueue ns3::EthernetHeader ( length/type=0xa0ed, source=00:00:00:00:00:03, destination=33:33:ff:00:00:03) ns3::SixLowPanIphc (TF_DSCP_ELIDED(0, 1) NH(0) HLIM_COMPR_255(255) CID(0) SAC(1) SAM (0) M(1) DAC(0) DAM (1)) ns3::Icmpv6NS (( type = 135 (NS) code = 0 target = 2001:1::200:ff:fe00:3 checksum = 37976)) ns3::Icmpv6OptionLinkLayerAddress (( type = 1 length = 1 L2 Address = 00-06-00:00:00:00:00:03)) Payload (size=2) ns3::EthernetTrailer (fcs=0)
- 0.007 /NodeList/0/DeviceList/1/$ns3::CsmaNetDevice/TxQueue/Dequeue ns3::EthernetHeader ( length/type=0xa0ed, source=00:00:00:00:00:03, destination=33:33:ff:00:00:03) ns3::SixLowPanIphc (TF_DSCP_ELIDED(0, 1) NH(0) HLIM_COMPR_255(255) CID(0) SAC(1) SAM (0) M(1) DAC(0) DAM (1)) ns3::Icmpv6NS (( type = 135 (NS) code = 0 target = 2001:1::200:ff:fe00:3 checksum = 37976)) ns3::Icmpv6OptionLinkLayerAddress (( type = 1 length = 1 L2 Address = 00-06-00:00:00:00:00:03)) Payload (size=2) ns3::EthernetTrailer (fcs=0)
+ 0.007 /NodeList/1/DeviceList/2/$ns3::CsmaNetDevice/TxQueue/Enqueue ns3::EthernetHeader ( length/type=0xa0ed, source=00:00:00:00:00:04, destination=33:33:ff:00:00:04) ns3::SixLowPanIphc (TF_DSCP_ELIDED(0, 1) NH(0) HLIM_COMPR_255(255) CID(0) SAC(1) SAM (0) M(1) DAC(0) DAM (1)) ns3::Icmpv6NS (( type = 135 (NS) code = 0 target = fe80::200:ff:fe00:4 checksum = 4730)) ns3::Icmpv6OptionLinkLayerAddress (( type = 1 length = 1 L2 Address = 00-06-00:00:00:00:00:04)) Payload (size=2) ns3::EthernetTrailer (fcs=0)
- 0.007 /NodeList/1/DeviceList/2/$ns3::CsmaNetDevice/TxQueue/Dequeue ns3::EthernetHeader ( length/type=0xa0ed, source=00:00:00:00:00:04, destination=33:33:ff:00:00:04) ns3::SixLowPanIphc (TF_DSCP_ELIDED(0, 1) NH(0) HLIM_COMPR_255(255) CID(0) SAC(1) SAM (0) M(1) DAC(0) DAM (1)) ns3::Icmpv6NS (( type = 135 (NS) code = 0 target = fe80::200:ff:fe00:4 checksum = 4730)) ns3::Icmpv6OptionLinkLayerAddress (( type = 1 length = 1 L2 Address = 00-06-00:00:00:00:00:04)) Payload (size=2) ns3::EthernetTrailer (fcs=0)
+ 0.008 /NodeList/1/DeviceList/1/$ns3::CsmaNetDevice/TxQueue/Enqueue ns3::EthernetHeader ( length/type=0x86dd, source=00:00:00:00:00:01, destination=33:33:ff:00:00:01) ns3::Ipv6Header ((Version 6 Traffic class 0x0 DSCP Default Flow Label 0x1 Payload Length 32 Next Header 58 Hop Limit 255 ):: > ff02::1:ff00:1) ns3::Icmpv6NS (( type = 135 (NS) code = 0 target = 2001:2::200:ff:fe00:1 checksum = 39256)) ns3::Icmpv6OptionLinkLayerAddress (( type = 1 length = 1 L2 Address = 00-06-00:00:00:00:00:01)) ns3::EthernetTrailer (fcs=0)
- 0.008 /NodeList/1/DeviceList/1/$ns3::CsmaNetDevice/TxQueue/Dequeue ns3::EthernetHeader ( length/type=0x86dd, source=00:00:00:00:00:01, destination=33:33:ff:00:00:01) ns3::Ipv6Header ((Version 6 Traffic class 0x0 DSCP Default Flow Label 0x1 Payload Length 32 Next Header 58 Hop Limit 255 ):: > ff02::1:ff00:1) ns3::Icmpv6NS (( type = 135 (NS) code = 0 target = 2001:2::200:ff:fe00:1 checksum = 39256)) ns3::Icmpv6OptionLinkLayerAddress (( type = 1 length = 1 L2 Address = 00-06-00:00:00:00:00:01)) ns3::EthernetTrailer (fcs=0)
+ 0.009 /NodeList/0/DeviceList/1/$ns3::CsmaNetDevice/TxQueue/Enqueue ns3::EthernetHeader ( length/type=0xa0ed, source=00:00:00:00:00:03, destination=33:33:ff:00:00:03) ns3::SixLowPanIphc (TF_DSCP_ELIDED(0, 1) NH(0) HLIM_COMPR_255(255) CID(0) SAC(1) SAM (0) M(1) DAC(0) DAM (1)) ns3::Icmpv6NS (( type = 135 (NS) code = 0 target = fe80::200:ff:fe00:3 checksum = 5498)) ns3::Icmpv6OptionLinkLayerAddress (( type = 1 length = 1 L2 Address = 00-06-00:00:00:00:00:03)) Payload (size=2) ns3::EthernetTrailer (fcs=0)
- 0.009 /NodeList/0/DeviceList/1/$ns3::CsmaNetDevice/TxQueue/Dequeue ns3::EthernetHeader ( length/type=0xa0ed, source=00:00:00:00:00:03, destination=33:33:ff:00:00:03) ns3::SixLowPanIphc (TF_DSCP_ELIDED(0, 1) NH(0) HLIM_COMPR_255(255) CID(0) SAC(1) SAM (0) M(1) DAC(0) DAM (1)) ns3::Icmpv6NS (( type = 135 (NS) code = 0 target = fe80::200:ff:fe00:3 checksum = 5498)) ns3::Icmpv6OptionLinkLayerAddress (( type = 1 length = 1 L2 Address = 00-06-00:00:00:00:00:03)) Payload (size=2) ns3::EthernetTrailer (fcs=0)
r 0.0091024 /NodeList/1/DeviceList/2/$ns3::CsmaNetDevice/MacRx ns3::EthernetHeader ( length/type=0xa0ed, source=00:00:00:00:00:03, destination=33:33:ff:00:00:03) ns3::SixLowPanIphc (TF_DSCP_ELIDED(0, 1) NH(0) HLIM_COMPR_255(255) CID(0) SAC(1) SAM (0) M(1) DAC(0) DAM (1)) ns3::Icmpv6NS (( type = 135 (NS) code = 0 target = 2001:1::200:ff:fe00:3 checksum = 37976)) ns3::Icmpv6OptionLinkLayerAddress (( type = 1 length = 1 L2 Address = 00-06-00:00:00:00:00:03)) Payload (size=2) ns3::EthernetTrailer (fcs=0)
r 0.010144 /NodeList/2/DeviceList/1/$ns3::CsmaNetDevice/MacRx ns3::EthernetHeader ( length/type=0x86dd, source=00:00:00:00:00:01, destination=33:33:ff:00:00:01) ns3::Ipv6Header ((Version 6 Traffic class 0x0 DSCP Default Flow Label 0x1 Payload Length 32 Next Header 58 Hop Limit 255 ):: > ff02::1:ff00:1) ns3::Icmpv6NS (( type = 135 (NS) code = 0 target = 2001:2::200:ff:fe00:1 checksum = 39256)) ns3::Icmpv6OptionLinkLayerAddress (( type = 1 length = 1 L2 Address = 00-06-00:00:00:00:00:01)) ns3::EthernetTrailer (fcs=0)
r 0.0112644 /NodeList/0/DeviceList/1/$ns3::CsmaNetDevice/MacRx ns3::EthernetHeader ( length/type=0xa0ed, source=00:00:00:00:00:04, destination=33:33:ff:00:00:04) ns3::SixLowPanIphc (TF_DSCP_ELIDED(0, 1) NH(0) HLIM_COMPR_255(255) CID(0) SAC(1) SAM (0) M(1) DAC(0) DAM (1)) ns3::Icmpv6NS (( type = 135 (NS) code = 0 target = fe80::200:ff:fe00:4 checksum = 4730)) ns3::Icmpv6OptionLinkLayerAddress (( type = 1 length = 1 L2 Address = 00-06-00:00:00:00:00:04)) Payload (size=2) ns3::EthernetTrailer (fcs=0)
r 0.0137464 /NodeList/1/DeviceList/2/$ns3::CsmaNetDevice/MacRx ns3::EthernetHeader ( length/type=0xa0ed, source=00:00:00:00:00:03, destination=33:33:ff:00:00:03) ns3::SixLowPanIphc (TF_DSCP_ELIDED(0, 1) NH(0) HLIM_COMPR_255(255) CID(0) SAC(1) SAM (0) M(1) DAC(0) DAM (1)) ns3::Icmpv6NS (( type = 135 (NS) code = 0 target = fe80::200:ff:fe00:3 checksum = 5498)) ns3::Icmpv6OptionLinkLayerAddress (( type = 1 length = 1 L2 Address = 00-06-00:00:00:00:00:03)) Payload (size=2) ns3::EthernetTrailer (fcs=0)
+ 1 /NodeList/2/DeviceList/1/$ns3::CsmaNetDevice/TxQueue/Enqueue ns3::EthernetHeader ( length/type=0x86dd, source=00:00:00:00:00:02, destination=33:33:00:00:00:02) ns3::Ipv6Header ((Version 6 Traffic class 0x0 DSCP Default Flow Label 0x1 Payload Length 16 Next Header 58 Hop Limit 255 )fe80::200:ff:fe00:2 > ff02::2) ns3::Icmpv6RS (( type = 133 (RS) code = 0 checksum = 10875)) ns3::Icmpv6OptionLinkLayerAddress (( type = 1 length = 1 L2 Address = 00-06-00:00:00:00:00:02)) ns3::EthernetTrailer (fcs=0)
- 1 /NodeList/2/DeviceList/1/$ns3::CsmaNetDevice/TxQueue/Dequeue ns3::EthernetHeader ( length/type=0x86dd, source=00:00:00:00:00:02, destination=33:33:00:00:00:02) ns3::Ipv6Header ((Version 6 Traffic class 0x0 DSCP Default Flow Label 0x1 Payload Length 16 Next Header 58 Hop Limit 255 )fe80::200:ff:fe00:2 > ff02::2) ns3::Icmpv6RS (( type = 133 (RS) code = 0 checksum = 10875)) ns3::Icmpv6OptionLinkLayerAddress (( type = 1 length = 1 L2 Address = 00-06-00:00:00:00:00:02)) ns3::EthernetTrailer (fcs=0)
r 1.00212 /NodeList/1/DeviceList/1/$ns3::CsmaNetDevice/MacRx ns3::EthernetHeader ( length/type=0x86dd, source=00:00:00:00:00:02, destination=33:33:00:00:00:02) ns3::Ipv6Header ((Version 6 Traffic class 0x0 DSCP Default Flow Label 0x1 Payload Length 16 Next Header 58 Hop Limit 255 )fe80::200:ff:fe00:2 > ff02::2) ns3::Icmpv6RS (( type = 133 (RS) code = 0 checksum = 10875)) ns3::Icmpv6OptionLinkLayerAddress (( type = 1 length = 1 L2 Address = 00-06-00:00:00:00:00:02)) ns3::EthernetTrailer (fcs=0)
+ 1.008 /NodeList/0/DeviceList/1/$ns3::CsmaNetDevice/TxQueue/Enqueue ns3::EthernetHeader ( length/type=0xa0ed, source=00:00:00:00:00:03, destination=33:33:00:00:00:02) ns3::SixLowPanIphc (TF_DSCP_ELIDED(0, 1) NH(0) HLIM_COMPR_255(255) CID(0) SAC(0) SAM (3) M(1) DAC(0) DAM (3)) ns3::Icmpv6RS (( type = 133 (RS) code = 0 checksum = 10363)) ns3::Icmpv6OptionLinkLayerAddress (( type = 1 length = 1 L2 Address = 00-06-00:00:00:00:00:03)) Payload (size=23) ns3::EthernetTrailer (fcs=0)
- 1.008 /NodeList/0/DeviceList/1/$ns3::CsmaNetDevice/TxQueue/Dequeue ns3::EthernetHeader ( length/type=0xa0ed, source=00:00:00:00:00:03, destination=33:33:00:00:00:02) ns3::SixLowPanIphc (TF_DSCP_ELIDED(0, 1) NH(0) HLIM_COMPR_255(255) CID(0) SAC(0) SAM (3) M(1) DAC(0) DAM (3)) ns3::Icmpv6RS (( type = 133 (RS) code = 0 checksum = 10363)) ns3::Icmpv6OptionLinkLayerAddress (( type = 1 length = 1 L2 Address = 00-06-00:00:00:00:00:03)) Payload (size=23) ns3::EthernetTrailer (fcs=0)
r 1.0101 /NodeList/1/DeviceList/2/$ns3::CsmaNetDevice/MacRx ns3::EthernetHeader ( length/type=0xa0ed, source=00:00:00:00:00:03, destination=33:33:00:00:00:02) ns3::SixLowPanIphc (TF_DSCP_ELIDED(0, 1) NH(0) HLIM_COMPR_255(255) CID(0) SAC(0) SAM (3) M(1) DAC(0) DAM (3)) ns3::Icmpv6RS (( type = 133 (RS) code = 0 checksum = 10363)) ns3::Icmpv6OptionLinkLayerAddress (( type = 1 length = 1 L2 Address = 00-06-00:00:00:00:00:03)) Payload (size=23) ns3::EthernetTrailer (fcs=0)
+ 1.96464 /NodeList/2/DeviceList/1/$ns3::CsmaNetDevice/TxQueue/Enqueue ns3::EthernetHeader ( length/type=0x86dd, source=00:00:00:00:00:02, destination=33:33:00:00:00:02) ns3::Ipv6Header ((Version 6 Traffic class 0x0 DSCP Default Flow Label 0x1 Payload Length 16 Next Header 58 Hop Limit 255 )fe80::200:ff:fe00:2 > ff02::2) ns3::Icmpv6RS (( type = 133 (RS) code = 0 checksum = 10875)) ns3::Icmpv6OptionLinkLayerAddress (( type = 1 length = 1 L2 Address = 00-06-00:00:00:00:00:02)) ns3::EthernetTrailer (fcs=0)
- 1.96464 /NodeList/2/DeviceList/1/$ns3::CsmaNetDevice/TxQueue/Dequeue ns3::EthernetHeader ( length/type=0x86dd, source=00:00:00:00:00:02, destination=33:33:00:00:00:02) ns3::Ipv6Header ((Version 6 Traffic class 0x0 DSCP Default Flow Label 0x1 Payload Length 16 Next Header 58 Hop Limit 255 )fe80::200:ff:fe00:2 > ff02::2) ns3::Icmpv6RS (( type = 133 (RS) code = 0 checksum = 10875)) ns3::Icmpv6OptionLinkLayerAddress (( type = 1 length = 1 L2 Address = 00-06-00:00:00:00:00:02)) ns3::EthernetTrailer (fcs=0)
r 1.96676 /NodeList/1/DeviceList/1/$ns3::CsmaNetDevice/MacRx ns3::EthernetHeader ( length/type=0x86dd, source=00:00:00:00:00:02, destination=33:33:00:00:00:02) ns3::Ipv6Header ((Version 6 Traffic class 0x0 DSCP Default Flow Label 0x1 Payload Length 16 Next Header 58 Hop Limit 255 )fe80::200:ff:fe00:2 > ff02::2) ns3::Icmpv6RS (( type = 133 (RS) code = 0 checksum = 10875)) ns3::Icmpv6OptionLinkLayerAddress (( type = 1 length = 1 L2 Address = 00-06-00:00:00:00:00:02)) ns3::EthernetTrailer (fcs=0)
+ 2.10506 /NodeList/0/DeviceList/1/$ns3::CsmaNetDevice/TxQueue/Enqueue ns3::EthernetHeader ( length/type=0xa0ed, source=00:00:00:00:00:03, destination=33:33:00:00:00:02) ns3::SixLowPanIphc (TF_DSCP_ELIDED(0, 1) NH(0) HLIM_COMPR_255(255) CID(0) SAC(0) SAM (3) M(1) DAC(0) DAM (3)) ns3::Icmpv6RS (( type = 133 (RS) code = 0 checksum = 10363)) ns3::Icmpv6OptionLinkLayerAddress (( type = 1 length = 1 L2 Address = 00-06-00:00:00:00:00:03)) Payload (size=23) ns3::EthernetTrailer (fcs=0)
- 2.10506 /NodeList/0/DeviceList/1/$ns3::CsmaNetDevice/TxQueue/Dequeue ns3::EthernetHeader ( length/type=0xa0ed, source=00:00:00:00:00:03, destination=33:33:00:00:00:02) ns3::SixLowPanIphc (TF_DSCP_ELIDED(0, 1) NH(0) HLIM_COMPR_255(255) CID(0) SAC(0) SAM (3) M(1) DAC(0) DAM (3)) ns3::Icmpv6RS (( type = 133 (RS) code = 0 checksum = 10363)) ns3::Icmpv6OptionLinkLayerAddress (( type = 1 length = 1 L2 Address = 00-06-00:00:00:00:00:03)) Payload (size=23) ns3::EthernetTrailer (fcs=0)
r 2.10716 /NodeList/1/DeviceList/2/$ns3::CsmaNetDevice/MacRx ns3::EthernetHeader ( length/type=0xa0ed, source=00:00:00:00:00:03, destination=33:33:00:00:00:02) ns3::SixLowPanIphc (TF_DSCP_ELIDED(0, 1) NH(0) HLIM_COMPR_255(255) CID(0) SAC(0) SAM (3) M(1) DAC(0) DAM (3)) ns3::Icmpv6RS (( type = 133 (RS) code = 0 checksum = 10363)) ns3::Icmpv6OptionLinkLayerAddress (( type = 1 length = 1 L2 Address = 00-06-00:00:00:00:00:03)) Payload (size=23) ns3::EthernetTrailer (fcs=0)
+ 3.9698 /NodeList/2/DeviceList/1/$ns3::CsmaNetDevice/TxQueue/Enqueue ns3::EthernetHeader ( length/type=0x86dd, source=00:00:00:00:00:02, destination=33:33:00:00:00:02) ns3::Ipv6Header ((Version 6 Traffic class 0x0 DSCP Default Flow Label 0x1 Payload Length 16 Next Header 58 Hop Limit 255 )fe80::200:ff:fe00:2 > ff02::2) ns3::Icmpv6RS (( type = 133 (RS) code = 0 checksum = 10875)) ns3::Icmpv6OptionLinkLayerAddress (( type = 1 length = 1 L2 Address = 00-06-00:00:00:00:00:02)) ns3::EthernetTrailer (fcs=0)
- 3.9698 /NodeList/2/DeviceList/1/$ns3::CsmaNetDevice/TxQueue/Dequeue ns3::EthernetHeader ( length/type=0x86dd, source=00:00:00:00:00:02, destination=33:33:00:00:00:02) ns3::Ipv6Header ((Version 6 Traffic class 0x0 DSCP Default Flow Label 0x1 Payload Length 16 Next Header 58 Hop Limit 255 )fe80::200:ff:fe00:2 > ff02::2) ns3::Icmpv6RS (( type = 133 (RS) code = 0 checksum = 10875)) ns3::Icmpv6OptionLinkLayerAddress (( type = 1 length = 1 L2 Address = 00-06-00:00:00:00:00:02)) ns3::EthernetTrailer (fcs=0)
r 3.97192 /NodeList/1/DeviceList/1/$ns3::CsmaNetDevice/MacRx ns3::EthernetHeader ( length/type=0x86dd, source=00:00:00:00:00:02, destination=33:33:00:00:00:02) ns3::Ipv6Header ((Version 6 Traffic class 0x0 DSCP Default Flow Label 0x1 Payload Length 16 Next Header 58 Hop Limit 255 )fe80::200:ff:fe00:2 > ff02::2) ns3::Icmpv6RS (( type = 133 (RS) code = 0 checksum = 10875)) ns3::Icmpv6OptionLinkLayerAddress (( type = 1 length = 1 L2 Address = 00-06-00:00:00:00:00:02)) ns3::EthernetTrailer (fcs=0)
+ 4.26433 /NodeList/0/DeviceList/1/$ns3::CsmaNetDevice/TxQueue/Enqueue ns3::EthernetHeader ( length/type=0xa0ed, source=00:00:00:00:00:03, destination=33:33:00:00:00:02) ns3::SixLowPanIphc (TF_DSCP_ELIDED(0, 1) NH(0) HLIM_COMPR_255(255) CID(0) SAC(0) SAM (3) M(1) DAC(0) DAM (3)) ns3::Icmpv6RS (( type = 133 (RS) code = 0 checksum = 10363)) ns3::Icmpv6OptionLinkLayerAddress (( type = 1 length = 1 L2 Address = 00-06-00:00:00:00:00:03)) Payload (size=23) ns3::EthernetTrailer (fcs=0)
- 4.26433 /NodeList/0/DeviceList/1/$ns3::CsmaNetDevice/TxQueue/Dequeue ns3::EthernetHeader ( length/type=0xa0ed, source=00:00:00:00:00:03, destination=33:33:00:00:00:02) ns3::SixLowPanIphc (TF_DSCP_ELIDED(0, 1) NH(0) HLIM_COMPR_255(255) CID(0) SAC(0) SAM (3) M(1) DAC(0) DAM (3)) ns3::Icmpv6RS (( type = 133 (RS) code = 0 checksum = 10363)) ns3::Icmpv6OptionLinkLayerAddress (( type = 1 length = 1 L2 Address = 00-06-00:00:00:00:00:03)) Payload (size=23) ns3::EthernetTrailer (fcs=0)
r 4.26643 /NodeList/1/DeviceList/2/$ns3::CsmaNetDevice/MacRx ns3::EthernetHeader ( length/type=0xa0ed, source=00:00:00:00:00:03, destination=33:33:00:00:00:02) ns3::SixLowPanIphc (TF_DSCP_ELIDED(0, 1) NH(0) HLIM_COMPR_255(255) CID(0) SAC(0) SAM (3) M(1) DAC(0) DAM (3)) ns3::Icmpv6RS (( type = 133 (RS) code = 0 checksum = 10363)) ns3::Icmpv6OptionLinkLayerAddress (( type = 1 length = 1 L2 Address = 00-06-00:00:00:00:00:03)) Payload (size=23) ns3::EthernetTrailer (fcs=0)
+ 5 /NodeList/0/DeviceList/1/$ns3::CsmaNetDevice/TxQueue/Enqueue ns3::EthernetHeader ( length/type=0xa0ed, source=00:00:00:00:00:03, destination=33:33:ff:00:00:04) ns3::SixLowPanIphc (TF_DSCP_ELIDED(0, 1) NH(0) HLIM_COMPR_255(255) CID(0) SAC(0) SAM (3) M(1) DAC(0) DAM (1)) ns3::Icmpv6NS (( type = 135 (NS) code = 0 target = fe80::200:ff:fe00:4 checksum = 36730)) ns3::Icmpv6OptionLinkLayerAddress (( type = 1 length = 1 L2 Address = 00-06-00:00:00:00:00:03)) Payload (size=2) ns3::EthernetTrailer (fcs=0)
- 5 /NodeList/0/DeviceList/1/$ns3::CsmaNetDevice/TxQueue/Dequeue ns3::EthernetHeader ( length/type=0xa0ed, source=00:00:00:00:00:03, destination=33:33:ff:00:00:04) ns3::SixLowPanIphc (TF_DSCP_ELIDED(0, 1) NH(0) HLIM_COMPR_255(255) CID(0) SAC(0) SAM (3) M(1) DAC(0) DAM (1)) ns3::Icmpv6NS (( type = 135 (NS) code = 0 target = fe80::200:ff:fe00:4 checksum = 36730)) ns3::Icmpv6OptionLinkLayerAddress (( type = 1 length = 1 L2 Address = 00-06-00:00:00:00:00:03)) Payload (size=2) ns3::EthernetTrailer (fcs=0)
r 5.0021 /NodeList/1/DeviceList/2/$ns3::CsmaNetDevice/MacRx ns3::EthernetHeader ( length/type=0xa0ed, source=00:00:00:00:00:03, destination=33:33:ff:00:00:04) ns3::SixLowPanIphc (TF_DSCP_ELIDED(0, 1) NH(0) HLIM_COMPR_255(255) CID(0) SAC(0) SAM (3) M(1) DAC(0) DAM (1)) ns3::Icmpv6NS (( type = 135 (NS) code = 0 target = fe80::200:ff:fe00:4 checksum = 36730)) ns3::Icmpv6OptionLinkLayerAddress (( type = 1 length = 1 L2 Address = 00-06-00:00:00:00:00:03)) Payload (size=2) ns3::EthernetTrailer (fcs=0)
+ 5.0021 /NodeList/1/DeviceList/2/$ns3::CsmaNetDevice/TxQueue/Enqueue ns3::EthernetHeader ( length/type=0xa0ed, source=00:00:00:00:00:04, destination=00:00:00:00:00:03) ns3::SixLowPanIphc (TF_DSCP_ELIDED(0, 1) NH(0) HLIM_COMPR_255(255) CID(0) SAC(0) SAM (3) M(0) DAC(0) DAM (3)) ns3::Icmpv6NA (( type = 136 (NA) code = 0 checksum = 4503)) ns3::Icmpv6OptionLinkLayerAddress (( type = 2 length = 1 L2 Address = 00-06-00:00:00:00:00:04)) Payload (size=8) ns3::EthernetTrailer (fcs=0)
- 5.0021 /NodeList/1/DeviceList/2/$ns3::CsmaNetDevice/TxQueue/Dequeue ns3::EthernetHeader ( length/type=0xa0ed, source=00:00:00:00:00:04, destination=00:00:00:00:00:03) ns3::SixLowPanIphc (TF_DSCP_ELIDED(0, 1) NH(0) HLIM_COMPR_255(255) CID(0) SAC(0) SAM (3) M(0) DAC(0) DAM (3)) ns3::Icmpv6NA (( type = 136 (NA) code = 0 checksum = 4503)) ns3::Icmpv6OptionLinkLayerAddress (( type = 2 length = 1 L2 Address = 00-06-00:00:00:00:00:04)) Payload (size=8) ns3::EthernetTrailer (fcs=0)
r 5.00421 /NodeList/0/DeviceList/1/$ns3::CsmaNetDevice/MacRx ns3::EthernetHeader ( length/type=0xa0ed, source=00:00:00:00:00:04, destination=00:00:00:00:00:03) ns3::SixLowPanIphc (TF_DSCP_ELIDED(0, 1) NH(0) HLIM_COMPR_255(255) CID(0) SAC(0) SAM (3) M(0) DAC(0) DAM (3)) ns3::Icmpv6NA (( type = 136 (NA) code = 0 checksum = 4503)) ns3::Icmpv6OptionLinkLayerAddress (( type = 2 length = 1 L2 Address = 00-06-00:00:00:00:00:04)) Payload (size=8) ns3::EthernetTrailer (fcs=0)
+ 5.00421 /NodeList/0/DeviceList/1/$ns3::CsmaNetDevice/TxQueue/Enqueue ns3::EthernetHeader ( length/type=0xa0ed, source=00:00:00:00:00:03, destination=00:00:00:00:00:04) ns3::SixLowPanFrag1 (datagram size 248 tag 32167) ns3::SixLowPanIphc (TF_DSCP_ELIDED(0, 1) NH(0) HLIM_COMPR_64(64) CID(0) SAC(0) SAM (0) M(0) DAC(0) DAM (0)) ns3::Icmpv6Echo (( type = 128 (Request) Id = 48879 SeqNo = 0 checksum = 64381)) Payload Fragment [0:96] ns3::EthernetTrailer (fcs=0)
- 5.00421 /NodeList/0/DeviceList/1/$ns3::CsmaNetDevice/TxQueue/Dequeue ns3::EthernetHeader ( length/type=0xa0ed, source=00:00:00:00:00:03, destination=00:00:00:00:00:04) ns3::SixLowPanFrag1 (datagram size 248 tag 32167) ns3::SixLowPanIphc (TF_DSCP_ELIDED(0, 1) NH(0) HLIM_COMPR_64(64) CID(0) SAC(0) SAM (0) M(0) DAC(0) DAM (0)) ns3::Icmpv6Echo (( type = 128 (Request) Id = 48879 SeqNo = 0 checksum = 64381)) Payload Fragment [0:96] ns3::EthernetTrailer (fcs=0)
+ 5.00421 /NodeList/0/DeviceList/1/$ns3::CsmaNetDevice/TxQueue/Enqueue ns3::EthernetHeader ( length/type=0xa0ed, source=00:00:00:00:00:03, destination=00:00:00:00:00:04) ns3::SixLowPanFragN (datagram size 248 tag 32167 offset 18) Payload Fragment [96:200] ns3::EthernetTrailer (fcs=0)
- 5.00449 /NodeList/0/DeviceList/1/$ns3::CsmaNetDevice/TxQueue/Dequeue ns3::EthernetHeader ( length/type=0xa0ed, source=00:00:00:00:00:03, destination=00:00:00:00:00:04) ns3::SixLowPanFragN (datagram size 248 tag 32167 offset 18) Payload Fragment [96:200] ns3::EthernetTrailer (fcs=0)
r 5.00647 /NodeList/1/DeviceList/2/$ns3::CsmaNetDevice/MacRx ns3::EthernetHeader ( length/type=0xa0ed, source=00:00:00:00:00:03, destination=00:00:00:00:00:04) ns3::SixLowPanFrag1 (datagram size 248 tag 32167) ns3::SixLowPanIphc (TF_DSCP_ELIDED(0, 1) NH(0) HLIM_COMPR_64(64) CID(0) SAC(0) SAM (0) M(0) DAC(0) DAM (0)) ns3::Icmpv6Echo (( type = 128 (Request) Id = 48879 SeqNo = 0 checksum = 64381)) Payload Fragment [0:96] ns3::EthernetTrailer (fcs=0)
r 5.00867 /NodeList/1/DeviceList/2/$ns3::CsmaNetDevice/MacRx ns3::EthernetHeader ( length/type=0xa0ed, source=00:00:00:00:00:03, destination=00:00:00:00:00:04) ns3::SixLowPanFragN (datagram size 248 tag 32167 offset 18) Payload Fragment [96:200] ns3::EthernetTrailer (fcs=0)
+ 5.01567 /NodeList/1/DeviceList/1/$ns3::CsmaNetDevice/TxQueue/Enqueue ns3::EthernetHeader ( length/type=0x86dd, source=00:00:00:00:00:01, destination=33:33:ff:00:00:02) ns3::Ipv6Header ((Version 6 Traffic class 0x0 DSCP Default Flow Label 0x1 Payload Length 32 Next Header 58 Hop Limit 255 )2001:2::200:ff:fe00:1 > ff02::1:ff00:2) ns3::Icmpv6NS (( type = 135 (NS) code = 0 target = 2001:2::200:ff:fe00:2 checksum = 37687)) ns3::Icmpv6OptionLinkLayerAddress (( type = 1 length = 1 L2 Address = 00-06-00:00:00:00:00:01)) ns3::EthernetTrailer (fcs=0)
- 5.01567 /NodeList/1/DeviceList/1/$ns3::CsmaNetDevice/TxQueue/Dequeue ns3::EthernetHeader ( length/type=0x86dd, source=00:00:00:00:00:01, destination=33:33:ff:00:00:02) ns3::Ipv6Header ((Version 6 Traffic class 0x0 DSCP Default Flow Label 0x1 Payload Length 32 Next Header 58 Hop Limit 255 )2001:2::200:ff:fe00:1 > ff02::1:ff00:2) ns3::Icmpv6NS (( type = 135 (NS) code = 0 target = 2001:2::200:ff:fe00:2 checksum = 37687)) ns3::Icmpv6OptionLinkLayerAddress (( type = 1 length = 1 L2 Address = 00-06-00:00:00:00:00:01)) ns3::EthernetTrailer (fcs=0)
r 5.01782 /NodeList/2/DeviceList/1/$ns3::CsmaNetDevice/MacRx ns3::EthernetHeader ( length/type=0x86dd, source=00:00:00:00:00:01, destination=33:33:ff:00:00:02) ns3::Ipv6Header ((Version 6 Traffic class 0x0 DSCP Default Flow Label 0x1 Payload Length 32 Next Header 58 Hop Limit 255 )2001:2::200:ff:fe00:1 > ff02::1:ff00:2) ns3::Icmpv6NS (( type = 135 (NS) code = 0 target = 2001:2::200:ff:fe00:2 checksum = 37687)) ns3::Icmpv6OptionLinkLayerAddress (( type = 1 length = 1 L2 Address = 00-06-00:00:00:00:00:01)) ns3::EthernetTrailer (fcs=0)
+ 5.01782 /NodeList/2/DeviceList/1/$ns3::CsmaNetDevice/TxQueue/Enqueue ns3::EthernetHeader ( length/type=0x86dd, source=00:00:00:00:00:02, destination=00:00:00:00:00:01) ns3::Ipv6Header ((Version 6 Traffic class 0x0 DSCP Default Flow Label 0x1 Payload Length 32 Next Header 58 Hop Limit 255 )2001:2::200:ff:fe00:2 > 2001:2::200:ff:fe00:1) ns3::Icmpv6NA (( type = 136 (NA) code = 0 checksum = 37810)) ns3::Icmpv6OptionLinkLayerAddress (( type = 2 length = 1 L2 Address = 00-06-00:00:00:00:00:02)) ns3::EthernetTrailer (fcs=0)
- 5.01782 /NodeList/2/DeviceList/1/$ns3::CsmaNetDevice/TxQueue/Dequeue ns3::EthernetHeader ( length/type=0x86dd, source=00:00:00:00:00:02, destination=00:00:00:00:00:01) ns3::Ipv6Header ((Version 6 Traffic class 0x0 DSCP Default Flow Label 0x1 Payload Length 32 Next Header 58 Hop Limit 255 )2001:2::200:ff:fe00:2 > 2001:2::200:ff:fe00:1) ns3::Icmpv6NA (( type = 136 (NA) code = 0 checksum = 37810)) ns3::Icmpv6OptionLinkLayerAddress (( type = 2 length = 1 L2 Address = 00-06-00:00:00:00:00:02)) ns3::EthernetTrailer (fcs=0)
r 5.01996 /NodeList/1/DeviceList/1/$ns3::CsmaNetDevice/MacRx ns3::EthernetHeader ( length/type=0x86dd, source=00:00:00:00:00:02, destination=00:00:00:00:00:01) ns3::Ipv6Header ((Version 6 Traffic class 0x0 DSCP Default Flow Label 0x1 Payload Length 32 Next Header 58 Hop Limit 255 )2001:2::200:ff:fe00:2 > 2001:2::200:ff:fe00:1) ns3::Icmpv6NA (( type = 136 (NA) code = 0 checksum = 37810)) ns3::Icmpv6OptionLinkLayerAddress (( type = 2 length = 1 L2 Address = 00-06-00:00:00:00:00:02)) ns3::EthernetTrailer (fcs=0)